1800
 Atoms. Timestep: 0
C 5.41966 22.6492 20.6322
C 6.0919 21.4646 19.949
O 7.38677 21.2815 20.4529
H 6.02038 23.57 20.4746
H 5.32413 22.4573 21.722
H 4.40647 22.8023 20.2045
H 6.15787 21.6642 18.8586
H 5.48151 20.5447 20.0952
H 7.28715 20.8495 21.3414
C 10.8571 2.43914 11.9595
C 11.0613 3.94812 11.9031
O 9.84809 4.59443 11.6298
H 10.4438 2.07516 10.995
H 10.1544 2.17949 12.7794
H 11.8294 1.93678 12.1474
H 11.7833 4.18663 11.0938
H 11.4893 4.31024 12.8653
H 9.32688 4.58901 12.4749
C 3.07818 7.80837 24.275
C 3.39349 6.70884 25.2817
O 4.75988 6.71029 25.5935
H 3.67682 7.66094 23.3512
H 3.31518 8.80275 24.7092
H 1.99934 7.77852 24.0139
H 3.12903 5.72518 24.8395
H 2.78218 6.84909 26.202
H 4.90835 7.46991 26.2154
C 21.1725 17.8951 21.2905
C 22.45 17.7238 20.4777
O 22.5843 18.7694 19.5543
H 20.2918 17.9176 20.6142
H 21.2128 18.8419 21.8697
H 21.0622 17.0461 21.9977
H 22.4017 16.7624 19.9242
H 23.3312 17.6867 21.1576
H 22.8897 19.5632 20.0666
C 30.4189 31.5181 6.10426
C 31.2569 30.2477 6.17991
O 30.6379 29.3039 7.01063
H 30.28 31.9429 7.12102
H 29.4248 31.2938 5.66296
H 30.9334 32.2684 5.4675
H 32.254 30.4952 6.60151
H 31.4081 29.8304 5.15849
H 29.8931 28.9091 6.48595
C 24.8368 10.7455 28.8672
C 23.5393 9.95215 28.772
O 22.4362 10.8162 28.7998
H 24.8487 11.3437 29.8029
H 24.9317 11.4278 27.9961
H 25.7016 10.0491 28.8737
H 23.4728 9.25998 29.6377
H 23.5344 9.34145 27.8407
H 22.3755 11.2282 27.8984
C 17.5858 28.7772 19.9031
C 18.9608 28.2522 19.5086
O 19.7402 29.2841 18.9682
H 17.0762 29.2115 19.017
H 17.6858 29.5583 20.6863
H 16.9681 27.9454 20.3024
H 18.8397 27.4574 18.7427
H 19.4652 27.8039 20.3945
H 20.052 29.8349 19.7332
C 32.4675 28.1712 23.418
C 32.5619 26.8655 22.6382
O 33.229 25.8927 23.395
H 33.4846 28.5301 23.6829
H 31.8801 28.0185 24.3482
H 31.9635 28.942 22.7977
H 33.1319 27.0425 21.7018
H 31.5424 26.5139 22.3604
H 32.5804 25.5657 24.072
C 19.0044 15.302 9.76221
C 18.4607 16.7247 9.71625
O 19.4888 17.6476 9.95152
H 19.4703 15.105 10.751
H 19.7642 15.1579 8.96505
H 18.1762 14.5796 9.60368
H 17.6871 16.8432 10.5041
H 17.9808 16.9168 8.72979
H 20.0145 17.7073 9.11127
C 35.7436 11.6181 7.81254
C 35.1874 12.7321 8.69087
O 34.1194 13.3727 8.04801
H 36.0824 12.0341 6.84009
H 34.9622 10.8505 7.62919
H 36.6068 11.1376 8.3194
H 35.988 13.4773 8.88225
H 34.8612 12.3165 9.67125
H 33.335 12.7697 8.13132
C 12.1276 21.5587 24.7948
C 10.9047 22.0169 24.0097
O 10.0326 20.9413 23.7937
H 12.6531 20.751 24.2425
H 11.8204 21.1791 25.7923
H 12.8241 22.4121 24.9342
H 11.2328 22.4138 23.0259
H 10.3866 22.8368 24.5572
H 9.55649 20.7853 24.6509
C 29.0959 18.7871 17.7273
C 28.1994 19.5402 16.7522
O 26.9388 18.932 16.6794
H 29.2044 17.7298 17.405
H 28.6582 18.815 18.7476
H 30.1 19.2604 17.7544
H 28.6637 19.5215 15.7437
H 28.1028 20.6038 17.068
H 26.4482 19.1964 17.5011
C 20.0321 24.9957 22.7553
C 21.3057 25.5773 22.1541
O 22.4166 25.2289 22.9344
H 19.897 25.3682 23.7929
H 20.0887 23.8866 22.7698
H 19.1564 25.3025 22.1454
H 21.2215 26.6842 22.1266
H 21.4328 25.2148 21.1088
H 22.6238 24.2805 22.7258
C 31.5669 6.91843 23.4527
C 32.8956 6.28567 23.0579
O 33.6781 7.20147 22.3414
H 31.021 7.25351 22.5454
H 31.7422 7.79118 24.1168
H 30.9445 6.1749 23.9938
H 32.6999 5.40247 22.4139
H 33.4359 5.93687 23.9671
H 34.0552 7.83445 23.007
C 24.423 13.9665 6.99365
C 25.7424 13.2344 7.20603
O 26.6749 13.6174 6.2324
H 24.0245 13.7455 5.98082
H 24.5738 15.0621 7.09593
H 23.6839 13.6334 7.75238
H 25.5681 12.1408 7.12303
H 26.1341 13.4449 8.22706
H 27.0077 14.5151 6.49565
C 12.5583 6.78297 5.77052
C 13.5081 5.60225 5.61052
O 14.8317 6.0515 5.50884
H 12.6584 7.47134 4.90469
H 12.7905 7.33562 6.70545
H 11.5112 6.41678 5.82059
H 13.2465 5.049 4.68393
H 13.3967 4.90512 6.47183
H 15.1198 6.29623 6.427
C 32.2461 27.5577 30.2447
C 31.0024 28.0885 30.9472
O 29.9073 27.2496 30.7001
H 32.0638 27.4863 29.1515
H 32.5068 26.5524 30.6382
H 33.0992 28.2456 30.4236
H 30.7707 29.1024 30.5581
H 31.1909 28.1736 32.0415
H 30.0245 26.4517 31.2794
C 13.5479 30.99 26.95
C 14.8581 31.7622 26.8555
O 15.9082 30.9005 26.5106
H 13.6371 30.1813 27.706
H 13.2963 30.5431 25.9649
H 12.7296 31.6771 27.2521
H 15.0813 32.2204 27.842
H 14.7632 32.5821 26.1077
H 15.8201 30.7207 25.5381
C 26.6446 34.8988 5.99229
C 27.2582 34.8266 4.59937
O 28.4773 34.1365 4.6387
H 27.3441 35.4065 6.68984
H 26.4313 33.876 6.36884
H 25.6947 35.4725 5.95348
H 27.443 35.8575 4.23034
H 26.5503 34.3305 3.89726
H 28.255 33.1712 4.70733
C 13.3393 29.5427 9.93395
C 12.7299 28.4534 10.808
O 12.0905 27.4918 10.0138
H 12.5487 30.0243 9.32022
H 14.1088 29.107 9.26206
H 13.8172 30.3132 10.575
H 11.9805 28.9107 11.488
H 13.5208 27.981 11.4336
H 12.8061 26.926 9.62187
C 22.2403 11.5991 9.51356
C 21.1912 12.4962 10.1589
O 20.0182 12.5046 9.39187
H 22.4636 11.9544 8.48525
H 21.8709 10.5528 9.46646
H 23.174 11.6235 10.114
H 21.5865 13.5322 10.2184
H 20.9784 12.1479 11.1951
H 19.5527 11.647 9.57568
C 25.2049 13.4102 21.4988
C 26.5028 14.1801 21.2877
O 26.4171 15.4504 21.8736
H 24.3537 13.9725 21.0595
H 25.0224 13.26 22.5839
H 25.274 12.4178 21.0056
H 26.6802 14.3005 20.1981
H 27.3577 13.6088 21.7155
H 26.5285 15.32 22.8516
C 27.9667 7.3679 25.7806
C 28.441 6.9275 27.1601
O 27.9486 7.79467 28.1448
H 28.3065 8.40514 25.5751
H 26.858 7.32939 25.7279
H 28.3866 6.69118 25.0068
H 29.5509 6.95024 27.1866
H 28.1123 5.88228 27.3594
H 26.9938 7.55798 28.2799
C 29.3046 5.45132 19.796
C 29.5608 5.25775 21.2856
O 28.928 4.09351 21.7419
H 28.2126 5.5142 19.6032
H 29.7286 4.60026 19.2221
H 29.7859 6.3912 19.4526
H 29.1509 6.12798 21.8404
H 30.6563 5.20936 21.4799
H 29.485 3.32985 21.438
C 27.0775 33.4077 10.5847
C 26.0129 32.3661 10.9067
O 24.8227 32.6591 10.2272
H 26.7183 34.4191 10.8702
H 27.3076 33.3948 9.49826
H 28.0055 33.1817 11.151
H 25.8127 32.3775 11.9989
H 26.3795 31.3506 10.6336
H 24.9595 32.3832 9.28323
C 33.3393 33.3279 7.92452
C 34.3381 34.0722 7.04681
O 35.5156 33.3252 6.90682
H 33.7834 33.1316 8.92339
H 33.0616 32.362 7.45197
H 32.4229 33.9418 8.05194
H 34.5861 35.0441 7.52316
H 33.8867 34.2814 6.05041
H 35.3179 32.6032 6.25452
C 28.2597 11.4646 5.50511
C 28.3395 9.94357 5.54815
O 28.4432 9.42379 4.25074
H 27.3846 11.7824 4.89949
H 29.1856 11.8828 5.05658
H 28.1484 11.8628 6.53566
H 27.4166 9.54496 6.01991
H 29.2087 9.62571 6.16755
H 29.381 9.57143 3.95993
C 29.9947 6.14666 9.72885
C 29.894 7.00028 10.987
O 29.9382 6.19085 12.1303
H 29.1645 5.40938 9.70229
H 30.9645 5.60569 9.7113
H 29.9293 6.79557 8.83018
H 28.9296 7.55059 10.976
H 30.7184 7.74888 11.0057
H 30.8874 5.92805 12.2556
C 34.4705 17.5632 12.6199
C 34.1566 19.0538 12.658
O 33.3185 19.3481 13.7421
H 33.5295 16.9786 12.5398
H 35.0097 17.2629 13.5432
H 35.1105 17.3379 11.7409
H 33.6388 19.3398 11.7183
H 35.1014 19.6398 12.7236
H 33.8904 19.3388 14.5537
C 33.1694 16.372 23.814
C 32.4097 16.2503 22.4987
O 33.2659 16.4955 21.4166
H 33.6123 17.3865 23.9047
H 33.9801 15.6141 23.858
H 32.475 16.2046 24.6641
H 31.59 16.9992 22.4825
H 31.9537 15.2377 22.4152
H 33.8154 15.6771 21.2982
C 24.5516 32.8582 35.1482
C 25.8809 33.5958 35.044
O 26.9396 32.7437 35.3866
H 24.4095 32.4751 36.181
H 24.5312 32.006 34.4363
H 23.7191 33.5509 34.903
H 25.8741 34.4568 35.7452
H 26.016 33.9921 34.012
H 27.0874 32.147 34.6069
C 29.7226 29.7728 18.4777
C 30.1384 28.3159 18.64
O 31.2528 28.0346 17.8379
H 29.4853 29.9841 17.4134
H 30.5436 30.4432 18.809
H 28.8221 29.9759 19.0948
H 29.298 27.6615 18.326
H 30.3621 28.1011 19.7096
H 32.0409 28.4225 18.3008
C 4.89626 30.7726 5.73235
C 3.56743 30.2721 6.28518
O 2.96953 31.2567 7.08346
H 5.57596 31.0469 6.5668
H 4.73092 31.6621 5.08831
H 5.37383 29.9742 5.12612
H 3.7496 29.3702 6.90688
H 2.89179 29.9836 5.4482
H 2.58092 31.9277 6.46322
C 6.86885 4.86839 4.41152
C 8.00641 4.35278 5.28443
O 8.84902 3.51413 4.54224
H 6.28756 4.01535 4.00169
H 7.2752 5.47075 3.57158
H 6.19243 5.50748 5.01731
H 7.58059 3.77316 6.13048
H 8.57989 5.20899 5.70667
H 9.40975 4.10528 3.97479
C 11.9329 6.06486 9.06475
C 12.8432 6.6201 10.1533
O 13.9424 7.27574 9.58232
H 12.4989 5.36102 8.4184
H 11.5342 6.89311 8.44149
H 11.082 5.52304 9.52884
H 13.2134 5.78119 10.7796
H 12.2712 7.31454 10.8097
H 13.6126 8.15523 9.26046
C 4.67031 22.2376 34.624
C 4.13401 21.0547 33.827
O 2.97383 21.4212 33.1314
H 3.89877 22.596 35.338
H 4.94635 23.0662 33.938
H 5.5718 21.9274 35.1932
H 3.88531 20.2288 34.5264
H 4.91327 20.6868 33.1216
H 3.26936 21.9531 32.3468
C 17.4365 7.58727 9.75624
C 18.6728 8.4758 9.81883
O 18.3259 9.81186 9.5764
H 16.9535 7.67765 8.76021
H 16.7113 7.88639 10.5425
H 17.7279 6.52849 9.92069
H 19.3952 8.14772 9.04194
H 19.1647 8.37355 10.8127
H 17.9077 10.1523 10.4101
C 36.0585 34.7842 10.2228
C 36.4108 36.2358 10.5237
O 36.4351 36.987 9.34077
H 36.7981 34.3522 9.51575
H 35.0446 34.7227 9.7736
H 36.071 34.1934 11.1629
H 37.4166 36.2754 10.9927
H 35.6771 36.6638 11.2439
H 35.4887 37.1563 9.09259
C 26.8849 6.25753 15.6968
C 28.2547 6.8794 15.9393
O 29.2048 5.88153 16.1959
H 26.5766 5.66049 16.5811
H 26.9179 5.59779 14.804
H 26.1356 7.05854 15.5238
H 28.1968 7.55257 16.8205
H 28.5567 7.48969 15.058
H 29.428 5.47022 15.3202
C 9.57317 24.5304 13.6909
C 10.2227 23.1566 13.8033
O 9.24316 22.1641 13.9436
H 8.95543 24.7336 14.5913
H 8.92837 24.575 12.7877
H 10.3592 25.3105 13.6097
H 10.8805 23.1383 14.6977
H 10.8535 22.9597 12.9069
H 8.85083 22.0231 13.0425
C 23.3833 24.601 30.4728
C 24.3702 25.6503 30.9697
O 23.7043 26.8505 31.2533
H 22.8634 24.969 29.5629
H 22.6312 24.3815 31.2599
H 23.9262 23.6649 30.2239
H 25.127 25.8398 30.1795
H 24.9016 25.2748 31.8736
H 23.2413 26.7198 32.1219
C 16.8524 31.8941 31.4859
C 17.8636 32.5013 30.5212
O 17.8154 33.9007 30.5813
H 15.8295 32.2482 31.2369
H 17.0966 32.1869 32.529
H 16.8793 30.7868 31.4081
H 17.6174 32.1795 29.4873
H 18.887 32.1344 30.7624
H 18.2891 34.1656 31.4128
C 17.7151 3.77561 12.305
C 19.0489 4.49601 12.4596
O 20.0396 3.6015 12.8869
H 17.4176 3.3152 13.2709
H 17.7971 2.98236 11.532
H 16.9325 4.49966 11.9947
H 18.9416 5.29938 13.2187
H 19.3394 4.96966 11.4945
H 20.2996 3.06533 12.0926
C 18.3051 22.7865 33.4175
C 17.6909 23.9967 32.7247
O 16.8942 23.589 31.6462
H 18.9158 22.2044 32.6952
H 17.5048 22.1348 33.8279
H 18.9566 23.1232 34.2512
H 18.505 24.6474 32.3415
H 17.0905 24.5878 33.4531
H 16.0464 23.2462 32.0331
C 8.20548 29.7646 11.092
C 8.2924 29.6558 9.57461
O 7.02356 29.4171 9.02934
H 7.78131 28.83 11.5164
H 7.55894 30.6215 11.3767
H 9.21988 29.9243 11.5144
H 8.96023 28.8092 9.30915
H 8.73127 30.5875 9.15102
H 6.53966 30.284 9.0464
C 5.33762 5.24843 8.01497
C 4.95574 6.52894 7.28263
O 4.49617 7.49186 8.19134
H 4.462 4.85413 8.57297
H 6.16519 5.44887 8.72799
H 5.67214 4.48395 7.28242
H 4.14404 6.30473 6.55878
H 5.83019 6.91574 6.7117
H 5.29924 7.86262 8.64243
C 14.3734 4.09353 35.0616
C 14.246 3.95995 36.5741
O 13.6586 5.11057 37.1175
H 14.9851 4.98549 34.809
H 13.3679 4.19781 34.6016
H 14.8662 3.18928 34.6462
H 15.2578 3.83372 37.0138
H 13.6447 3.05723 36.8268
H 12.6867 5.05199 36.9231
C 11.6904 15.522 29.729
C 12.455 16.8233 29.938
O 11.6579 17.7532 30.6193
H 10.7602 15.7158 29.1538
H 11.4266 15.0726 30.7098
H 12.3209 14.8042 29.1632
H 12.7299 17.2456 28.9485
H 13.3947 16.6259 30.5021
H 11.6532 17.478 31.5733
C 36.5583 23.2947 22.5934
C 35.2639 24.0327 22.2744
O 35.4641 25.4183 22.3382
H 36.9183 23.5785 23.6051
H 37.3373 23.5491 21.8438
H 36.3803 22.199 22.5685
H 34.4912 23.7488 23.0197
H 34.896 23.7366 21.2659
H 35.9408 25.6749 21.5059
C 2.52831 20.6724 23.6161
C 4.02203 20.5857 23.3278
O 4.69993 21.6466 23.9434
H 2.12621 21.6409 23.2503
H 2.34504 20.5898 24.7084
H 1.9988 19.8442 23.0996
H 4.18406 20.6467 22.2309
H 4.42156 19.6082 23.6818
H 4.76438 21.4206 24.9081
C 19.4529 11.7412 19.2642
C 20.9482 11.995 19.4111
O 21.2235 13.3647 19.3012
H 19.0977 12.1206 18.2827
H 18.897 12.2545 20.0773
H 19.2507 10.651 19.3238
H 21.4887 11.4561 18.6046
H 21.3064 11.6013 20.3894
H 20.9601 13.7775 20.1649
C 36.9197 3.88829 19.3896
C 36.2396 3.46372 20.6854
O 36.518 4.38285 21.7061
H 38.0172 3.96205 19.5429
H 36.5298 4.87436 19.0593
H 36.7161 3.13789 18.5968
H 36.6245 2.46691 20.9875
H 35.1407 3.37589 20.5271
H 35.9435 5.17528 21.539
C 8.14696 18.771 28.0566
C 9.23392 17.7217 27.8581
O 8.79569 16.4725 28.3183
H 7.87521 18.8381 29.1314
H 7.24463 18.5019 27.4677
H 8.51603 19.7612 27.7157
H 10.1349 18.0189 28.4351
H 9.51612 17.6652 26.7823
H 8.17695 16.1168 27.628
C 23.3495 33.9133 13.7976
C 24.8678 34.0271 13.86
O 25.3739 34.4776 12.6332
H 23.0538 33.214 12.9869
H 22.8998 34.9099 13.6025
H 22.9631 33.5281 14.7646
H 25.298 33.0269 14.0783
H 25.1639 34.7172 14.6825
H 25.1955 35.4535 12.5937
C 25.3323 11.7908 12.1688
C 26.0677 12.8523 11.36
O 25.6727 14.1345 11.7651
H 24.2353 11.9068 12.0398
H 25.5859 11.8879 13.2457
H 25.6314 10.7801 11.8193
H 25.8204 12.7254 10.2849
H 27.1678 12.7263 11.4783
H 26.1356 14.3159 12.6245
C 16.5805 11.9244 11.8876
C 17.3077 12.7479 12.9435
O 18.6568 12.3743 13.0095
H 16.662 10.8428 12.1265
H 17.0227 12.1117 10.8862
H 15.5073 12.2086 11.865
H 16.8377 12.5656 13.933
H 17.2132 13.8329 12.7112
H 19.1045 12.7874 12.2254
C 6.97753 18.9583 34.7899
C 7.60656 19.647 33.5849
O 7.41476 18.8784 32.4288
H 7.42378 17.9506 34.9275
H 5.88167 18.8555 34.6416
H 7.16113 19.5617 35.7038
H 8.69698 19.7617 33.7608
H 7.16898 20.663 33.4563
H 6.47182 19.0158 32.1498
C 10.2314 32.3679 18.3664
C 9.20179 32.7566 17.3125
O 9.83738 33.0817 16.1064
H 10.944 33.2042 18.5282
H 10.7928 31.4678 18.0377
H 9.71848 32.141 19.3248
H 8.63538 33.6431 17.668
H 8.47892 31.923 17.1614
H 10.1024 32.2228 15.6847
C 8.33061 28.5973 14.7079
C 9.80496 28.2937 14.4712
O 10.4645 29.4299 13.9829
H 7.85506 28.9331 13.7621
H 8.22326 29.3942 15.474
H 7.81314 27.6826 15.0665
H 9.89198 27.48 13.7206
H 10.2776 27.9431 15.4167
H 10.6032 30.0331 14.7593
C 33.4081 33.3903 29.2916
C 33.0425 32.7383 30.6194
O 32.7446 33.7168 31.5775
H 34.2801 34.0649 29.4268
H 32.5483 33.9776 28.9053
H 33.6702 32.6069 28.5497
H 33.9048 32.1377 30.9784
H 32.1773 32.051 30.4801
H 31.8332 34.0507 31.3683
C 36.0053 12.685 21.5016
C 36.3941 11.7484 20.3643
O 36.1246 10.4183 20.7142
H 36.5636 12.4161 22.4232
H 34.9151 12.6119 21.7004
H 36.2502 13.732 21.2244
H 37.4815 11.852 20.1645
H 35.8447 12.0279 19.4367
H 35.1437 10.2942 20.6238
C 19.1198 5.92776 3.3033
C 18.0402 6.7561 3.98896
O 18.3707 8.11747 3.94837
H 20.0992 6.09398 3.79997
H 19.1993 6.21491 2.2334
H 18.8616 4.84972 3.36746
H 17.9593 6.43966 5.05028
H 17.0559 6.57777 3.4996
H 18.175 8.42972 3.02637
C 35.7618 11.8291 16.6696
C 35.987 10.3656 17.0291
O 37.3079 9.99176 16.7467
H 35.9793 11.9939 15.593
H 36.4247 12.4784 17.2799
H 34.7052 12.1054 16.8702
H 35.3004 9.7341 16.4266
H 35.7547 10.1982 18.1053
H 37.8708 10.3677 17.4731
C 34.6328 36.5818 32.7057
C 35.3693 35.2916 33.0445
O 36.7536 35.5097 33.0592
H 34.9662 36.9613 31.7166
H 34.8359 37.3518 33.4799
H 33.5397 36.39 32.6683
H 35.1363 34.5275 32.2732
H 35.0238 34.904 34.0297
H 36.9584 35.9762 33.9115
C 32.2262 3.25031 19.6484
C 32.7321 4.50418 18.9458
O 33.0065 5.51057 19.8818
H 31.3101 3.48455 20.2311
H 33.0053 2.85689 20.3351
H 31.9847 2.47095 18.8953
H 31.9499 4.86953 18.2475
H 33.6423 4.2653 18.3502
H 33.8702 5.27241 20.3098
C 14.5702 19.3054 15.0789
C 14.2571 19.3055 16.5702
O 15.3038 19.8997 17.2882
H 15.5175 18.7573 14.8895
H 14.6714 20.3481 14.7101
H 13.748 18.8065 14.524
H 14.1369 18.2571 16.9158
H 13.2998 19.8427 16.7577
H 15.2148 20.8803 17.1606
C 32.8725 17.5292 17.3104
C 33.386 16.5495 16.2623
O 34.3367 15.6872 16.825
H 33.7174 18.1179 17.7266
H 32.3702 16.9785 18.1338
H 32.1424 18.2252 16.8462
H 33.8639 17.1185 15.437
H 32.5365 15.9698 15.8351
H 33.8328 15.0182 17.3583
C 20.1139 29.7926 15.6619
C 20.168 28.2839 15.455
O 19.1021 27.662 16.1192
H 20.1545 30.0292 16.7463
H 19.1751 30.2031 15.2333
H 20.9788 30.271 15.156
H 21.1224 27.8949 15.8685
H 20.1419 28.0481 14.3669
H 18.2931 27.8166 15.5647
C 10.8592 19.2532 14.596
C 9.6878 18.8765 15.4947
O 9.9784 17.7069 16.21
H 11.0794 18.4238 13.8909
H 11.761 19.4594 15.2107
H 10.6061 20.1639 14.0133
H 8.79072 18.6968 14.8654
H 9.45831 19.7144 16.1916
H 10.5952 17.9682 16.9429
C 14.1144 20.1863 31.9403
C 14.686 20.9075 33.1548
O 14.1045 22.1758 33.2871
H 14.2978 20.7839 31.0222
H 13.0213 20.0352 32.0657
H 14.6033 19.1956 31.829
H 15.7818 21.029 33.0222
H 14.5146 20.3008 34.0728
H 13.1972 22.0341 33.6647
C 31.181 9.83091 26.9153
C 30.1717 9.84658 28.0567
O 29.0336 10.5783 27.6913
H 31.4692 10.8698 26.6485
H 30.7423 9.33322 26.0247
H 32.0895 9.27366 27.2268
H 30.6351 10.3265 28.9444
H 29.8942 8.80411 28.3334
H 28.5029 9.99526 27.0878
C 26.498 22.3774 11.4152
C 27.3176 23.6426 11.6372
O 28.6484 23.3163 11.9314
H 26.5385 21.7347 12.3201
H 26.8973 21.8114 10.547
H 25.4404 22.6475 11.212
H 26.8904 24.2062 12.4933
H 27.2647 24.2932 10.7348
H 29.0752 23.0624 11.0716
C 29.8544 36.4351 10.0354
C 30.8518 35.3831 9.56589
O 30.9177 34.3284 10.4864
H 30.1516 36.8221 11.0331
H 28.8375 35.9936 10.1027
H 29.8325 37.2785 9.31349
H 31.857 35.8477 9.48243
H 30.5612 35.006 8.55911
H 30.1051 33.7759 10.3438
C 22.6162 20.8179 34.3899
C 22.0138 20.9448 32.996
O 22.0291 19.7046 32.3434
H 23.6582 20.44 34.3207
H 22.013 20.1161 35.0039
H 22.6253 21.8116 34.8854
H 22.6157 21.6669 32.4049
H 20.974 21.3375 33.0653
H 21.2876 19.1704 32.7317
C 4.13335 18.144 12.6089
C 5.52578 18.5684 13.0594
O 6.22002 17.4743 13.5935
H 3.56902 17.7204 13.4666
H 4.20819 17.3791 11.8072
H 3.58304 19.0243 12.2149
H 5.43135 19.3489 13.8436
H 6.08581 19.0063 12.2022
H 6.52023 16.9249 12.8228
C 19.8172 5.85931 19.9502
C 18.5944 4.99002 20.2166
O 18.4835 3.9917 19.2392
H 19.7423 6.32249 18.9435
H 20.7409 5.2448 20.0018
H 19.878 6.66361 20.7133
H 17.6838 5.62473 20.1838
H 18.6633 4.53756 21.2318
H 19.158 3.29845 19.4637
C 26.9254 26.3779 24.1902
C 28.3475 26.8438 24.4773
O 28.3502 28.1895 24.8685
H 26.474 27.0045 23.3921
H 26.3061 26.4542 25.1089
H 26.9391 25.3199 23.8534
H 28.957 26.7387 23.555
H 28.8046 26.2058 25.2674
H 28.0386 28.2118 25.811
C 28.6826 34.9546 30.4886
C 28.8872 36.4539 30.309
O 29.9423 36.9021 31.1152
H 28.4682 34.7252 31.554
H 29.5943 34.4045 30.1728
H 27.8263 34.6167 29.8678
H 27.9589 36.9851 30.6075
H 29.0878 36.6847 29.2382
H 30.7821 36.6252 30.6636
C 27.4615 27.8844 20.7215
C 28.0786 28.8817 21.6943
O 27.5423 30.16 21.4878
H 27.6481 28.2083 19.6757
H 26.3664 27.8128 20.8919
H 27.915 26.8825 20.8749
H 29.1753 28.9229 21.5248
H 27.9036 28.5487 22.7425
H 26.6377 30.1578 21.8972
C 8.16096 6.09518 20.3986
C 8.44046 7.57992 20.5969
O 7.43073 8.34969 20.0035
H 8.09561 5.86213 19.3147
H 7.20449 5.81792 20.8903
H 8.9818 5.49676 20.847
H 9.41031 7.83357 20.1192
H 8.52028 7.81011 21.6835
H 6.6468 8.30681 20.6113
C 19.504 29.1122 31.8186
C 20.5186 30.0357 32.4817
O 20.724 29.6572 33.8153
H 18.5421 29.1438 32.373
H 19.8862 28.0695 31.8092
H 19.3279 29.4395 30.7723
H 20.1302 31.0758 32.4613
H 21.4782 30.0146 31.9168
H 21.3077 28.8542 33.7958
C 23.8991 11.2748 32.4966
C 22.6928 10.3784 32.7479
O 23.0809 9.21938 33.4336
H 24.6646 10.7259 31.9082
H 24.3426 11.5974 33.4624
H 23.5844 12.1749 31.9277
H 22.2494 10.085 31.773
H 21.9196 10.9342 33.3254
H 23.2173 9.48249 34.3813
C 13.5883 21.5524 21.0028
C 14.6342 20.4628 21.2047
O 15.5966 20.5162 20.1874
H 13.0992 21.4311 20.013
H 14.0656 22.5538 21.0543
H 12.8159 21.4815 21.7975
H 14.1357 19.471 21.1732
H 15.1138 20.5764 22.2033
H 16.1947 21.2791 20.4022
C 15.4779 7.20137 17.3485
C 15.6361 5.68708 17.4099
O 15.6903 5.14958 16.1167
H 14.5544 7.46473 16.7906
H 16.3542 7.6563 16.8399
H 15.4068 7.61224 18.3776
H 14.7633 5.25228 17.9411
H 16.5546 5.42355 17.9819
H 16.6012 5.33778 15.769
C 34.1727 20.4059 25.5265
C 34.8963 21.2846 24.5135
O 34.5074 20.9476 23.2099
H 34.3965 19.336 25.3299
H 33.0761 20.5684 25.4582
H 34.5104 20.6621 26.5528
H 35.9909 21.1261 24.612
H 34.683 22.358 24.7202
H 33.6076 21.3435 23.0707
C 32.8543 15.6805 9.51651
C 32.512 17.1512 9.72132
O 32.4493 17.8136 8.48786
H 33.8261 15.5866 8.98713
H 32.0621 15.1842 8.91684
H 32.9299 15.1733 10.5014
H 33.3022 17.6248 10.3413
H 31.5446 17.2443 10.265
H 31.5837 17.5596 8.07292
C 33.7144 16.5916 33.5233
C 34.1075 15.7188 34.7089
O 34.667 14.5137 34.263
H 32.9875 16.0528 32.8792
H 34.6134 16.8485 32.9239
H 33.2461 17.5298 33.8884
H 33.2009 15.4914 35.3085
H 34.8251 16.2653 35.362
H 35.5933 14.7214 33.9719
C 23.2927 2.87603 36.101
C 23.3323 4.2062 35.3588
O 23.7634 4.01549 34.0389
H 24.2999 2.40798 36.0963
H 22.5682 2.189 35.6146
H 22.9781 3.04358 37.1527
H 24.0435 4.88716 35.872
H 22.3254 4.68173 35.3765
H 22.9923 3.6381 33.5401
C 18.5161 19.3814 34.9055
C 17.9629 18.753 36.1787
O 18.0434 17.3556 36.1076
H 17.9496 19.0145 34.0234
H 19.5887 19.1197 34.7856
H 18.4201 20.4862 34.9613
H 16.8974 19.0439 36.2937
H 18.5218 19.1325 37.064
H 18.9927 17.1171 36.2748
C 8.0894 29.2749 35.7032
C 6.66832 29.8063 35.5618
O 6.61873 31.1638 35.9066
H 8.44481 29.4131 36.7464
H 8.76948 29.8149 35.0109
H 8.11058 28.1926 35.4558
H 5.9995 29.2398 36.2436
H 6.30741 29.6541 34.5193
H 6.99718 31.6659 35.1382
C 5.91147 4.25864 23.5401
C 5.036 5.03256 22.5621
O 5.20989 4.54402 21.26
H 6.97857 4.34321 23.2439
H 5.6186 3.18738 23.5491
H 5.78725 4.67346 24.5625
H 5.32743 6.10386 22.5835
H 3.96767 4.95931 22.8679
H 4.70239 3.6923 21.2063
C 27.8526 28.9084 10.4713
C 28.7636 30.0261 9.97857
O 28.555 30.2587 8.61233
H 28.0464 27.9786 9.89566
H 26.7884 29.2005 10.3463
H 28.0475 28.7136 11.5469
H 29.8216 29.7263 10.1325
H 28.5789 30.9541 10.566
H 27.7078 30.7711 8.53767
C 29.2712 15.3498 10.3843
C 27.8511 15.8151 10.0864
O 27.8491 17.1651 9.7101
H 29.7119 15.9687 11.1944
H 29.9006 15.4381 9.47351
H 29.2568 14.2881 10.7092
H 27.2317 15.6981 11.0006
H 27.4048 15.1847 9.28413
H 28.1712 17.1986 8.77149
C 34.6121 20.3485 32.7798
C 35.6524 21.4358 33.019
O 36.7152 20.9343 33.7826
H 34.2323 19.9656 33.7507
H 35.0613 19.5099 32.2068
H 33.762 20.7651 32.1994
H 35.1799 22.2748 33.5721
H 36.0221 21.8294 32.045
H 37.2722 20.3872 33.1691
C 8.18544 8.72425 33.06
C 9.41293 8.15539 32.3589
O 10.5291 8.97028 32.592
H 7.98378 9.75441 32.6971
H 8.35044 8.74934 34.158
H 7.30223 8.08681 32.8441
H 9.2211 8.11652 31.2658
H 9.60588 7.11716 32.7125
H 10.8346 8.77552 33.5164
C 16.7416 2.88072 26.3469
C 15.4851 3.53617 25.787
O 14.8014 2.64405 24.9499
H 17.4046 2.55836 25.5161
H 16.4694 1.99649 26.9613
H 17.2897 3.60601 26.9845
H 15.7749 4.43021 25.1956
H 14.8277 3.87216 26.6208
H 14.3311 2.00172 25.5433
C 35.586 14.5148 30.8392
C 34.4429 14.1992 29.8824
O 33.2539 14.7897 30.3316
H 35.342 14.1457 31.8579
H 35.7583 15.6113 30.8794
H 36.5152 14.018 30.4889
H 34.3005 13.0988 29.8376
H 34.6945 14.5567 28.8581
H 33.315 15.7555 30.1095
C 17.9935 28.1339 5.69905
C 17.7009 26.6385 5.71401
O 16.4588 26.3906 6.31379
H 17.9879 28.5326 6.73563
H 17.2263 28.6668 5.0984
H 18.992 28.3153 5.24849
H 18.4898 26.1202 6.29892
H 17.7211 26.2367 4.67556
H 15.7669 26.6278 5.64226
C 13.4835 28.3033 15.7652
C 13.8434 29.6581 16.3626
O 13.0022 30.6556 15.851
H 13.5709 28.3406 14.6586
H 12.4432 28.029 16.0406
H 14.1748 27.5268 16.1553
H 14.8929 29.9048 16.0966
H 13.7696 29.6158 17.473
H 12.1318 30.5605 16.3192
C 11.394 27.5309 28.6185
C 10.9122 26.2705 27.9107
O 9.51634 26.1713 27.9879
H 11.0744 27.5153 29.6821
H 10.9727 28.4314 28.1235
H 12.5024 27.5834 28.5761
H 11.3612 25.3829 28.4042
H 11.2455 26.2801 26.8481
H 9.14904 26.8127 27.3249
C 19.7588 13.7404 5.31521
C 19.869 15.2239 4.98506
O 21.2124 15.589 4.82314
H 20.3264 13.5143 6.24269
H 20.1662 13.1323 4.48
H 18.6931 13.4697 5.46986
H 19.4365 15.8146 5.81996
H 19.2877 15.4526 4.06309
H 21.4902 15.2598 3.92849
C 37.0382 18.0108 35.2075
C 36.4375 18.4614 36.5334
O 36.2342 19.848 36.5304
H 38.0017 18.5337 35.0295
H 36.3395 18.2387 34.3749
H 37.2216 16.9159 35.2327
H 37.1387 18.2049 37.3553
H 35.4786 17.9259 36.718
H 35.4224 20.0148 35.9836
C 18.1187 25.5547 26.6731
C 18.9808 25.2753 27.8981
O 18.3012 25.6441 29.067
H 17.8541 26.6326 26.6324
H 17.1873 24.9512 26.7162
H 18.6783 25.2861 25.7525
H 19.9165 25.869 27.8265
H 19.2577 24.1971 27.9303
H 17.6321 24.932 29.2431
C 27.3566 22.6823 33.3606
C 25.8902 22.3325 33.1389
O 25.2055 22.3041 34.3615
H 27.8262 21.9394 34.0396
H 27.4439 23.6943 33.8097
H 27.8945 22.673 32.3892
H 25.8236 21.3287 32.6688
H 25.4239 23.0695 32.4464
H 25.0512 23.2496 34.6224
C 26.8152 32.3717 24.8812
C 27.8048 33.4131 25.3892
O 29.0961 32.8715 25.4467
H 26.8231 31.4831 25.5474
H 27.0863 32.0583 23.8508
H 25.792 32.803 24.8678
H 27.505 33.7311 26.41
H 27.7857 34.3097 24.7289
H 29.4358 32.8478 24.514
C 29.5291 15.5819 14.9491
C 29.8777 14.2328 15.5657
O 28.7104 13.5361 15.9063
H 28.9256 16.1816 15.663
H 28.949 15.4354 14.0134
H 30.4611 16.1364 14.7105
H 30.4764 14.3984 16.4862
H 30.4951 13.6379 14.8549
H 28.339 13.1735 15.0599
C 23.8215 35.5677 9.46303
C 24.8575 36.6607 9.6952
O 26.1491 36.1627 9.4765
H 24.0157 34.7097 10.1411
H 23.865 35.2181 8.40976
H 22.8053 35.9658 9.6675
H 24.7837 37.0134 10.7456
H 24.6535 37.5266 9.02522
H 26.2698 36.1089 8.49242
C 33.1648 36.8598 26.3443
C 34.4673 36.2222 25.8766
O 35.271 37.1719 25.2314
H 32.6196 37.2903 25.4777
H 33.3765 37.665 27.0794
H 32.5246 36.0919 26.8275
H 34.235 35.4055 25.1609
H 35.0063 35.7781 26.744
H 35.6765 37.7319 25.9441
C 28.9489 17.1362 34.2049
C 29.4852 15.8917 34.9017
O 30.8435 16.0513 35.2077
H 29.5255 17.3297 33.2756
H 29.0332 18.0162 34.8771
H 27.8806 16.9865 33.9416
H 29.3718 15.0191 34.2243
H 28.8972 15.69 35.8257
H 30.8877 16.6455 36.002
C 31.0697 19.2446 23.3657
C 30.6094 20.5377 24.0274
O 31.2573 21.6383 23.4503
H 32.1697 19.134 23.4718
H 30.8056 19.2528 22.287
H 30.5721 18.3784 23.8506
H 30.8609 20.5017 25.1084
H 29.5045 20.6407 23.9334
H 30.8147 21.8022 22.5767
C 32.3958 9.00157 7.12657
C 32.6815 8.44004 8.51398
O 33.2529 9.42531 9.33066
H 33.3352 9.37544 6.66697
H 31.6656 9.83553 7.19535
H 31.9709 8.20465 6.48057
H 33.3946 7.59369 8.42314
H 31.7416 8.05216 8.96825
H 32.5137 10.0268 9.60937
C 36.8614 33.3403 16.2212
C 36.3558 34.7271 15.8429
O 37.4266 35.5528 15.4745
H 37.5864 33.4156 17.0592
H 37.3586 32.8645 15.3495
H 36.0082 32.7047 16.5388
H 35.8422 35.1774 16.7184
H 35.618 34.6494 15.0123
H 37.6913 35.282 14.5567
C 6.50967 22.4156 9.73182
C 5.49477 22.3838 8.59568
O 4.19618 22.2495 9.10542
H 6.4345 21.4858 10.3347
H 6.32157 23.2922 10.3872
H 7.53589 22.4927 9.31482
H 5.7123 21.5152 7.93891
H 5.58067 23.3098 7.98301
H 3.93536 23.141 9.45633
C 5.81611 22.7149 12.9366
C 5.00571 23.3198 14.0764
O 4.35899 24.4874 13.6488
H 6.56466 23.4494 12.5709
H 5.14397 22.4305 12.0994
H 6.34667 21.8077 13.2951
H 5.69036 23.5764 14.9122
H 4.26523 22.5778 14.4522
H 3.57963 24.1977 13.1061
C 10.4247 20.3254 6.62974
C 9.2274 20.8717 7.39771
O 9.62683 21.3343 8.65893
H 10.8991 19.5003 7.20218
H 11.1711 21.1308 6.46319
H 10.0914 19.9355 5.64491
H 8.48267 20.0595 7.53454
H 8.7436 21.6892 6.81643
H 10.0688 22.2113 8.51275
C 26.0536 28.3731 34.8522
C 25.0454 29.3515 34.2622
O 24.159 28.6822 33.4075
H 26.6191 27.8727 34.0377
H 25.5295 27.6044 35.4588
H 26.7677 28.9192 35.504
H 25.5885 30.1248 33.6791
H 24.4889 29.8634 35.0799
H 23.5132 28.2012 33.9884
C 27.1058 10.0392 22.8856
C 27.2648 10.3245 21.3972
O 27.9567 11.5276 21.2025
H 26.5601 10.8729 23.3762
H 28.1031 9.9255 23.361
H 26.5313 9.09966 23.0273
H 26.2589 10.4121 20.9351
H 27.7993 9.48146 20.9034
H 28.9151 11.3353 21.377
C 8.22729 29.8885 30.2979
C 7.6166 31.1417 30.913
O 6.31417 30.8806 31.3599
H 7.60056 29.5366 29.4512
H 8.29654 29.084 31.0603
H 9.24706 30.1152 29.9215
H 7.57663 31.9413 30.1435
H 8.2533 31.5023 31.7526
H 6.40173 30.3762 32.2107
C 28.0674 14.5847 31.6956
C 27.1532 14.1143 32.8202
O 26.1573 13.2663 32.3168
H 27.4746 15.1159 30.921
H 28.5797 13.7154 31.2314
H 28.8336 15.2782 32.1016
H 26.668 14.9974 33.2869
H 27.7503 13.5945 33.6035
H 26.5885 12.3867 32.1551
C 4.8472 18.8319 8.96265
C 6.26304 18.9791 8.41897
O 6.98353 17.7918 8.60693
H 4.87958 18.5763 10.043
H 4.309 18.0304 8.41359
H 4.29596 19.7872 8.83467
H 6.77735 19.799 8.96332
H 6.22955 19.2496 7.33917
H 6.66851 17.1557 7.9127
C 10.6763 6.43051 23.0045
C 9.47449 5.59933 23.4366
O 9.63865 4.26396 23.0441
H 10.8017 6.37309 21.9024
H 11.5977 6.05404 23.4972
H 10.5216 7.49106 23.2948
H 8.56053 6.00404 22.9529
H 9.34075 5.66913 24.54
H 10.2833 3.85811 23.6809
C 22.2125 21.9997 3.3575
C 23.4043 21.3546 4.05412
O 23.4495 19.9824 3.77271
H 21.2701 21.5146 3.68919
H 22.3105 21.8931 2.25637
H 22.1705 23.0799 3.61126
H 23.3008 21.491 5.15128
H 24.3476 21.8512 3.73202
H 23.8046 19.8934 2.84977
C 21.0284 15.4684 16.643
C 19.9198 14.5218 16.1994
O 18.8009 14.6569 17.0324
H 21.3125 15.2545 17.6952
H 20.6852 16.5217 16.5641
H 21.9192 15.3316 15.9943
H 20.2883 13.4763 16.2629
H 19.6457 14.7273 15.1397
H 18.3423 15.4938 16.7583
C 15.411 27.6106 29.1938
C 16.791 28.2565 29.1786
O 16.7252 29.5342 28.6064
H 15.0123 27.5415 28.1594
H 14.7144 28.2132 29.8144
H 15.4808 26.5885 29.6221
H 17.4787 27.629 28.5734
H 17.1962 28.3122 30.2145
H 16.3345 30.1337 29.2948
C 18.7107 35.4615 17.8373
C 18.3707 36.1059 19.1756
O 19.3609 35.8135 20.1232
H 18.8053 34.3616 17.9582
H 19.6678 35.8701 17.4493
H 17.9053 35.6755 17.1035
H 17.4009 35.7029 19.5364
H 18.2617 37.2072 19.0507
H 20.1344 36.4006 19.9159
C 10.8159 21.7226 28.6589
C 9.86006 22.0742 27.5255
O 8.56008 22.247 28.0198
H 10.4782 20.7945 29.1668
H 10.8527 22.5509 29.3979
H 11.8358 21.5596 28.2513
H 9.85383 21.2459 26.7859
H 10.2074 22.9968 27.0074
H 8.53884 23.1381 28.4573
C 31.3704 26.6108 4.96288
C 31.1546 26.0589 3.55906
O 31.6343 24.745 3.47255
H 32.4507 26.5852 5.21945
H 30.8048 26.0051 5.70221
H 31.0134 27.6612 5.01102
H 31.7081 26.6899 2.83201
H 30.0729 26.0985 3.29701
H 30.9614 24.1671 3.91877
C 7.41544 26.0939 10.3758
C 6.04165 26.7508 10.3211
O 5.04559 25.7832 10.132
H 7.60644 25.5333 9.43626
H 7.46971 25.3939 11.2364
H 8.19796 26.8724 10.4964
H 6.01374 27.4632 9.4697
H 5.85689 27.3247 11.2574
H 4.9147 25.3356 11.0086
C 4.7419 11.5083 30.5609
C 6.20568 11.8449 30.3041
O 7.02951 10.7936 30.7286
H 4.58049 11.3147 31.6425
H 4.45005 10.6073 29.9808
H 4.10166 12.3598 30.2478
H 6.47283 12.7602 30.8733
H 6.3638 12.0532 29.2216
H 6.96102 10.0829 30.0386
C 3.82851 24.5773 24.138
C 2.93919 23.9274 25.1909
O 2.68096 24.8271 26.2339
H 4.78408 24.9067 24.5984
H 3.31468 25.4562 23.6942
H 4.04992 23.8462 23.3322